
     Program PWSCF v.6.8 starts on  8Apr2022 at 16:18:27 

     This program is part of the open-source Quantum ESPRESSO suite
     for quantum simulation of materials; please cite
         "P. Giannozzi et al., J. Phys.:Condens. Matter 21 395502 (2009);
         "P. Giannozzi et al., J. Phys.:Condens. Matter 29 465901 (2017);
         "P. Giannozzi et al., J. Chem. Phys. 152 154105 (2020);
          URL http://www.quantum-espresso.org", 
     in publications or presentations arising from this work. More details at
     http://www.quantum-espresso.org/quote

     Parallel version (MPI), running on     2 processors

     MPI processes distributed on     1 nodes
     R & G space division:  proc/nbgrp/npool/nimage =       2
     1689 MiB available memory on the printing compute node when the environment starts

     Reading input from h2.scf_apart.in

     Current dimensions of program PWSCF are:
     Max number of different atomic species (ntypx) = 10
     Max number of k-points (npk) =  40000
     Max angular momentum in pseudopotentials (lmaxx) =  4

     Subspace diagonalization in iterative solution of the eigenvalue problem:
     a serial algorithm will be used


     Parallelization info
     --------------------
     sticks:   dense  smooth     PW     G-vecs:    dense   smooth      PW
     Min        1904    1904    474                88754    88754   11058
     Max        1905    1905    475                88755    88755   11061
     Sum        3809    3809    949               177509   177509   22119

     Using Slab Decomposition



     bravais-lattice index     =            1
     lattice parameter (alat)  =      20.0000  a.u.
     unit-cell volume          =    8000.0000 (a.u.)^3
     number of atoms/cell      =            2
     number of atomic types    =            1
     number of electrons       =         2.00
     number of Kohn-Sham states=            1
     kinetic-energy cutoff     =      30.0000  Ry
     charge density cutoff     =     120.0000  Ry
     scf convergence threshold =      1.0E-08
     mixing beta               =       0.7000
     number of iterations used =            8  plain     mixing
     Exchange-correlation= PBE
                           (   1   4   3   4   0   0   0)

     celldm(1)=  20.000000  celldm(2)=   0.000000  celldm(3)=   0.000000
     celldm(4)=   0.000000  celldm(5)=   0.000000  celldm(6)=   0.000000

     crystal axes: (cart. coord. in units of alat)
               a(1) = (   1.000000   0.000000   0.000000 )  
               a(2) = (   0.000000   1.000000   0.000000 )  
               a(3) = (   0.000000   0.000000   1.000000 )  

     reciprocal axes: (cart. coord. in units 2 pi/alat)
               b(1) = (  1.000000  0.000000  0.000000 )  
               b(2) = (  0.000000  1.000000  0.000000 )  
               b(3) = (  0.000000  0.000000  1.000000 )  


     PseudoPot. # 1 for H  read from file:
     /home/elvis/Quantum-Espresso-Tutorial/SSSP_1.1.2_PBE_precision/H_ONCV_PBE-1.0.oncvpsp.upf
     MD5 check sum: 1790becc920ee074925cf490c71280fe
     Pseudo is Norm-conserving, Zval =  1.0
     Generated using ONCVPSP code by D. R. Hamann
     Using radial grid of 1166 points,  2 beta functions with: 
                l(1) =   0
                l(2) =   0

     atomic species   valence    mass     pseudopotential
        H              1.00     1.00784     H ( 1.00)

      8 Sym. Ops. (no inversion) found



   Cartesian axes

     site n.     atom                  positions (alat units)
         1           H   tau(   1) = (   0.0000000   0.0000000   0.0000000  )
         2           H   tau(   2) = (   0.1889726   0.0000000   0.0000000  )

     number of k points=     1
                       cart. coord. in units 2pi/alat
        k(    1) = (   0.0000000   0.0000000   0.0000000), wk =   2.0000000

     Dense  grid:   177509 G-vectors     FFT dimensions: (  72,  72,  72)

     Estimated max dynamical RAM per process >      51.27 MB

     Estimated total dynamical RAM >     102.54 MB

     Initial potential from superposition of free atoms

     starting charge    1.99998, renormalised to    2.00000

     negative rho (up, down):  1.418E-03 0.000E+00
     Starting wfcs are    2 randomized atomic wfcs

     total cpu time spent up to now is        0.3 secs

     Self-consistent Calculation

     iteration #  1     ecut=    30.00 Ry     beta= 0.70
     Davidson diagonalization with overlap
     ethr =  1.00E-02,  avg # of iterations =  1.0

     Threshold (ethr) on eigenvalues was too large:
     Diagonalizing with lowered threshold

     Davidson diagonalization with overlap
     ethr =  4.78E-04,  avg # of iterations =  1.0

     negative rho (up, down):  3.477E-04 0.000E+00

     total cpu time spent up to now is        0.5 secs

     total energy              =      -1.98632393 Ry
     estimated scf accuracy    <       0.00995808 Ry

     iteration #  2     ecut=    30.00 Ry     beta= 0.70
     Davidson diagonalization with overlap
     ethr =  4.98E-04,  avg # of iterations =  1.0

     negative rho (up, down):  5.612E-06 0.000E+00

     total cpu time spent up to now is        0.7 secs

     total energy              =      -1.98637165 Ry
     estimated scf accuracy    <       0.00072823 Ry

     iteration #  3     ecut=    30.00 Ry     beta= 0.70
     Davidson diagonalization with overlap
     ethr =  3.64E-05,  avg # of iterations =  1.0

     negative rho (up, down):  4.436E-06 0.000E+00

     total cpu time spent up to now is        0.9 secs

     total energy              =      -1.98641349 Ry
     estimated scf accuracy    <       0.00000684 Ry

     iteration #  4     ecut=    30.00 Ry     beta= 0.70
     Davidson diagonalization with overlap
     ethr =  3.42E-07,  avg # of iterations =  2.0

     negative rho (up, down):  6.346E-07 0.000E+00

     total cpu time spent up to now is        1.1 secs

     total energy              =      -1.98641558 Ry
     estimated scf accuracy    <       0.00000028 Ry

     iteration #  5     ecut=    30.00 Ry     beta= 0.70
     Davidson diagonalization with overlap
     ethr =  1.41E-08,  avg # of iterations =  3.0

     negative rho (up, down):  3.930E-07 0.000E+00

     total cpu time spent up to now is        1.3 secs

     total energy              =      -1.98641562 Ry
     estimated scf accuracy    <       0.00000025 Ry

     iteration #  6     ecut=    30.00 Ry     beta= 0.70
     Davidson diagonalization with overlap
     ethr =  1.27E-08,  avg # of iterations =  1.0

     total cpu time spent up to now is        1.5 secs

     total energy              =      -1.98641561 Ry
     estimated scf accuracy    <       0.00000006 Ry

     iteration #  7     ecut=    30.00 Ry     beta= 0.70
     Davidson diagonalization with overlap
     ethr =  3.07E-09,  avg # of iterations =  5.0

     negative rho (up, down):  1.169E-08 0.000E+00

     total cpu time spent up to now is        1.8 secs

     total energy              =      -1.98641563 Ry
     estimated scf accuracy    <       0.00000067 Ry

     iteration #  8     ecut=    30.00 Ry     beta= 0.70
     Davidson diagonalization with overlap
     ethr =  3.07E-09,  avg # of iterations =  2.0

     negative rho (up, down):  1.158E-08 0.000E+00

     total cpu time spent up to now is        2.0 secs

     total energy              =      -1.98641564 Ry
     estimated scf accuracy    <       0.00000032 Ry

     iteration #  9     ecut=    30.00 Ry     beta= 0.70
     Davidson diagonalization with overlap
     ethr =  3.07E-09,  avg # of iterations =  1.0

     total cpu time spent up to now is        2.2 secs

     total energy              =      -1.98641564 Ry
     estimated scf accuracy    <       0.00000026 Ry

     iteration # 10     ecut=    30.00 Ry     beta= 0.70
     Davidson diagonalization with overlap
     ethr =  3.07E-09,  avg # of iterations =  1.0

     total cpu time spent up to now is        2.4 secs

     total energy              =      -1.98641562 Ry
     estimated scf accuracy    <       0.00000022 Ry

     iteration # 11     ecut=    30.00 Ry     beta= 0.70
     Davidson diagonalization with overlap
     ethr =  3.07E-09,  avg # of iterations =  2.0

     total cpu time spent up to now is        2.7 secs

     total energy              =      -1.98641563 Ry
     estimated scf accuracy    <       0.00000008 Ry

     iteration # 12     ecut=    30.00 Ry     beta= 0.70
     Davidson diagonalization with overlap
     ethr =  3.07E-09,  avg # of iterations =  2.0

     total cpu time spent up to now is        2.9 secs

     total energy              =      -1.98641564 Ry
     estimated scf accuracy    <       0.00000001 Ry

     iteration # 13     ecut=    30.00 Ry     beta= 0.70
     Davidson diagonalization with overlap
     ethr =  5.79E-10,  avg # of iterations =  2.0

     total cpu time spent up to now is        3.1 secs

     End of self-consistent calculation

          k = 0.0000 0.0000 0.0000 ( 22119 PWs)   bands (ev):

    -7.4155

     highest occupied level (ev):    -7.4155

!    total energy              =      -1.98641564 Ry
     estimated scf accuracy    <          1.5E-09 Ry

     The total energy is the sum of the following terms:
     one-electron contribution =      -2.09910202 Ry
     hartree contribution      =       1.14798303 Ry
     xc contribution           =      -1.00489309 Ry
     ewald contribution        =      -0.03040356 Ry

     convergence has been achieved in  13 iterations

     Writing output data file ./h2.save/

     init_run     :      0.26s CPU      0.29s WALL (       1 calls)
     electrons    :      2.72s CPU      2.82s WALL (       1 calls)

     Called by init_run:
     wfcinit      :      0.02s CPU      0.02s WALL (       1 calls)
     potinit      :      0.14s CPU      0.16s WALL (       1 calls)
     hinit0       :      0.04s CPU      0.04s WALL (       1 calls)

     Called by electrons:
     c_bands      :      0.33s CPU      0.34s WALL (      14 calls)
     sum_band     :      0.37s CPU      0.39s WALL (      14 calls)
     v_of_rho     :      1.61s CPU      1.67s WALL (      14 calls)
     mix_rho      :      0.46s CPU      0.48s WALL (      14 calls)

     Called by c_bands:
     init_us_2    :      0.02s CPU      0.02s WALL (      29 calls)
     cegterg      :      0.31s CPU      0.32s WALL (      14 calls)

     Called by *egterg:
     cdiaghg      :      0.00s CPU      0.00s WALL (      38 calls)
     h_psi        :      0.31s CPU      0.31s WALL (      40 calls)
     g_psi        :      0.00s CPU      0.00s WALL (      25 calls)

     Called by h_psi:
     h_psi:calbec :      0.01s CPU      0.01s WALL (      40 calls)
     vloc_psi     :      0.30s CPU      0.30s WALL (      40 calls)
     add_vuspsi   :      0.00s CPU      0.00s WALL (      40 calls)

     General routines
     calbec       :      0.01s CPU      0.01s WALL (      40 calls)
     fft          :      1.01s CPU      1.06s WALL (     140 calls)
     ffts         :      0.10s CPU      0.10s WALL (      14 calls)
     fftw         :      0.30s CPU      0.30s WALL (      96 calls)

     Parallel routines

     PWSCF        :      3.00s CPU      3.15s WALL


   This run was terminated on:  16:18:30   8Apr2022            

=------------------------------------------------------------------------------=
   JOB DONE.
=------------------------------------------------------------------------------=
